# vtk DataFile Version 2.0
Unstructured Grid
ASCII
DATASET UNSTRUCTURED_GRID
POINTS 882 double
0.000 0.000 0.000
5.000 0.000 0.000
10.000 0.000 0.000
15.000 0.000 0.000
20.000 0.000 0.000
25.000 0.000 0.000
30.000 0.000 0.000
35.000 0.000 0.000
40.000 0.000 0.000
45.000 0.000 0.000
50.000 0.000 0.000
55.000 0.000 0.000
60.000 0.000 0.000
65.000 0.000 0.000
70.000 0.000 0.000
75.000 0.000 0.000
80.000 0.000 0.000
85.000 0.000 0.000
90.000 0.000 0.000
95.000 0.000 0.000
100.000 0.000 0.000
0.000 5.000 0.000
5.000 5.000 0.000
10.000 5.000 0.000
15.000 5.000 0.000
20.000 5.000 0.000
25.000 5.000 0.000
30.000 5.000 0.000
35.000 5.000 0.000
40.000 5.000 0.000
45.000 5.000 0.000
50.000 5.000 0.000
55.000 5.000 0.000
60.000 5.000 0.000
65.000 5.000 0.000
70.000 5.000 0.000
75.000 5.000 0.000
80.000 5.000 0.000
85.000 5.000 0.000
90.000 5.000 0.000
95.000 5.000 0.000
100.000 5.000 0.000
0.000 10.000 0.000
5.000 10.000 0.000
10.000 10.000 0.000
15.000 10.000 0.000
20.000 10.000 0.000
25.000 10.000 0.000
30.000 10.000 0.000
35.000 10.000 0.000
40.000 10.000 0.000
45.000 10.000 0.000
50.000 10.000 0.000
55.000 10.000 0.000
60.000 10.000 0.000
65.000 10.000 0.000
70.000 10.000 0.000
75.000 10.000 0.000
80.000 10.000 0.000
85.000 10.000 0.000
90.000 10.000 0.000
95.000 10.000 0.000
100.000 10.000 0.000
0.000 15.000 0.000
5.000 15.000 0.000
10.000 15.000 0.000
15.000 15.000 0.000
20.000 15.000 0.000
25.000 15.000 0.000
30.000 15.000 0.000
35.000 15.000 0.000
40.000 15.000 0.000
45.000 15.000 0.000
50.000 15.000 0.000
55.000 15.000 0.000
60.000 15.000 0.000
65.000 15.000 0.000
70.000 15.000 0.000
75.000 15.000 0.000
80.000 15.000 0.000
85.000 15.000 0.000
90.000 15.000 0.000
95.000 15.000 0.000
100.000 15.000 0.000
0.000 20.000 0.000
5.000 20.000 0.000
10.000 20.000 0.000
15.000 20.000 0.000
20.000 20.000 0.000
25.000 20.000 0.000
30.000 20.000 0.000
35.000 20.000 0.000
40.000 20.000 0.000
45.000 20.000 0.000
50.000 20.000 0.000
55.000 20.000 0.000
60.000 20.000 0.000
65.000 20.000 0.000
70.000 20.000 0.000
75.000 20.000 0.000
80.000 20.000 0.000
85.000 20.000 0.000
90.000 20.000 0.000
95.000 20.000 0.000
100.000 20.000 0.000
0.000 25.000 0.000
5.000 25.000 0.000
10.000 25.000 0.000
15.000 25.000 0.000
20.000 25.000 0.000
25.000 25.000 0.000
30.000 25.000 0.000
35.000 25.000 0.000
40.000 25.000 0.000
45.000 25.000 0.000
50.000 25.000 0.000
55.000 25.000 0.000
60.000 25.000 0.000
65.000 25.000 0.000
70.000 25.000 0.000
75.000 25.000 0.000
80.000 25.000 0.000
85.000 25.000 0.000
90.000 25.000 0.000
95.000 25.000 0.000
100.000 25.000 0.000
0.000 30.000 0.000
5.000 30.000 0.000
10.000 30.000 0.000
15.000 30.000 0.000
20.000 30.000 0.000
25.000 30.000 0.000
30.000 30.000 0.000
35.000 30.000 0.000
40.000 30.000 0.000
45.000 30.000 0.000
50.000 30.000 0.000
55.000 30.000 0.000
60.000 30.000 0.000
65.000 30.000 0.000
70.000 30.000 0.000
75.000 30.000 0.000
80.000 30.000 0.000
85.000 30.000 0.000
90.000 30.000 0.000
95.000 30.000 0.000
100.000 30.000 0.000
0.000 35.000 0.000
5.000 35.000 0.000
10.000 35.000 0.000
15.000 35.000 0.000
20.000 35.000 0.000
25.000 35.000 0.000
30.000 35.000 0.000
35.000 35.000 0.000
40.000 35.000 0.000
45.000 35.000 0.000
50.000 35.000 0.000
55.000 35.000 0.000
60.000 35.000 0.000
65.000 35.000 0.000
70.000 35.000 0.000
75.000 35.000 0.000
80.000 35.000 0.000
85.000 35.000 0.000
90.000 35.000 0.000
95.000 35.000 0.000
100.000 35.000 0.000
0.000 40.000 0.000
5.000 40.000 0.000
10.000 40.000 0.000
15.000 40.000 0.000
20.000 40.000 0.000
25.000 40.000 0.000
30.000 40.000 0.000
35.000 40.000 0.000
40.000 40.000 0.000
45.000 40.000 0.000
50.000 40.000 0.000
55.000 40.000 0.000
60.000 40.000 0.000
65.000 40.000 0.000
70.000 40.000 0.000
75.000 40.000 0.000
80.000 40.000 0.000
85.000 40.000 0.000
90.000 40.000 0.000
95.000 40.000 0.000
100.000 40.000 0.000
0.000 45.000 0.000
5.000 45.000 0.000
10.000 45.000 0.000
15.000 45.000 0.000
20.000 45.000 0.000
25.000 45.000 0.000
30.000 45.000 0.000
35.000 45.000 0.000
40.000 45.000 0.000
45.000 45.000 0.000
50.000 45.000 0.000
55.000 45.000 0.000
60.000 45.000 0.000
65.000 45.000 0.000
70.000 45.000 0.000
75.000 45.000 0.000
80.000 45.000 0.000
85.000 45.000 0.000
90.000 45.000 0.000
95.000 45.000 0.000
100.000 45.000 0.000
0.000 50.000 0.000
5.000 50.000 0.000
10.000 50.000 0.000
15.000 50.000 0.000
20.000 50.000 0.000
25.000 50.000 0.000
30.000 50.000 0.000
35.000 50.000 0.000
40.000 50.000 0.000
45.000 50.000 0.000
50.000 50.000 0.000
55.000 50.000 0.000
60.000 50.000 0.000
65.000 50.000 0.000
70.000 50.000 0.000
75.000 50.000 0.000
80.000 50.000 0.000
85.000 50.000 0.000
90.000 50.000 0.000
95.000 50.000 0.000
100.000 50.000 0.000
0.000 55.000 0.000
5.000 55.000 0.000
10.000 55.000 0.000
15.000 55.000 0.000
20.000 55.000 0.000
25.000 55.000 0.000
30.000 55.000 0.000
35.000 55.000 0.000
40.000 55.000 0.000
45.000 55.000 0.000
50.000 55.000 0.000
55.000 55.000 0.000
60.000 55.000 0.000
65.000 55.000 0.000
70.000 55.000 0.000
75.000 55.000 0.000
80.000 55.000 0.000
85.000 55.000 0.000
90.000 55.000 0.000
95.000 55.000 0.000
100.000 55.000 0.000
0.000 60.000 0.000
5.000 60.000 0.000
10.000 60.000 0.000
15.000 60.000 0.000
20.000 60.000 0.000
25.000 60.000 0.000
30.000 60.000 0.000
35.000 60.000 0.000
40.000 60.000 0.000
45.000 60.000 0.000
50.000 60.000 0.000
55.000 60.000 0.000
60.000 60.000 0.000
65.000 60.000 0.000
70.000 60.000 0.000
75.000 60.000 0.000
80.000 60.000 0.000
85.000 60.000 0.000
90.000 60.000 0.000
95.000 60.000 0.000
100.000 60.000 0.000
0.000 65.000 0.000
5.000 65.000 0.000
10.000 65.000 0.000
15.000 65.000 0.000
20.000 65.000 0.000
25.000 65.000 0.000
30.000 65.000 0.000
35.000 65.000 0.000
40.000 65.000 0.000
45.000 65.000 0.000
50.000 65.000 0.000
55.000 65.000 0.000
60.000 65.000 0.000
65.000 65.000 0.000
70.000 65.000 0.000
75.000 65.000 0.000
80.000 65.000 0.000
85.000 65.000 0.000
90.000 65.000 0.000
95.000 65.000 0.000
100.000 65.000 0.000
0.000 70.000 0.000
5.000 70.000 0.000
10.000 70.000 0.000
15.000 70.000 0.000
20.000 70.000 0.000
25.000 70.000 0.000
30.000 70.000 0.000
35.000 70.000 0.000
40.000 70.000 0.000
45.000 70.000 0.000
50.000 70.000 0.000
55.000 70.000 0.000
60.000 70.000 0.000
65.000 70.000 0.000
70.000 70.000 0.000
75.000 70.000 0.000
80.000 70.000 0.000
85.000 70.000 0.000
90.000 70.000 0.000
95.000 70.000 0.000
100.000 70.000 0.000
0.000 75.000 0.000
5.000 75.000 0.000
10.000 75.000 0.000
15.000 75.000 0.000
20.000 75.000 0.000
25.000 75.000 0.000
30.000 75.000 0.000
35.000 75.000 0.000
40.000 75.000 0.000
45.000 75.000 0.000
50.000 75.000 0.000
55.000 75.000 0.000
60.000 75.000 0.000
65.000 75.000 0.000
70.000 75.000 0.000
75.000 75.000 0.000
80.000 75.000 0.000
85.000 75.000 0.000
90.000 75.000 0.000
95.000 75.000 0.000
100.000 75.000 0.000
0.000 80.000 0.000
5.000 80.000 0.000
10.000 80.000 0.000
15.000 80.000 0.000
20.000 80.000 0.000
25.000 80.000 0.000
30.000 80.000 0.000
35.000 80.000 0.000
40.000 80.000 0.000
45.000 80.000 0.000
50.000 80.000 0.000
55.000 80.000 0.000
60.000 80.000 0.000
65.000 80.000 0.000
70.000 80.000 0.000
75.000 80.000 0.000
80.000 80.000 0.000
85.000 80.000 0.000
90.000 80.000 0.000
95.000 80.000 0.000
100.000 80.000 0.000
0.000 85.000 0.000
5.000 85.000 0.000
10.000 85.000 0.000
15.000 85.000 0.000
20.000 85.000 0.000
25.000 85.000 0.000
30.000 85.000 0.000
35.000 85.000 0.000
40.000 85.000 0.000
45.000 85.000 0.000
50.000 85.000 0.000
55.000 85.000 0.000
60.000 85.000 0.000
65.000 85.000 0.000
70.000 85.000 0.000
75.000 85.000 0.000
80.000 85.000 0.000
85.000 85.000 0.000
90.000 85.000 0.000
95.000 85.000 0.000
100.000 85.000 0.000
0.000 90.000 0.000
5.000 90.000 0.000
10.000 90.000 0.000
15.000 90.000 0.000
20.000 90.000 0.000
25.000 90.000 0.000
30.000 90.000 0.000
35.000 90.000 0.000
40.000 90.000 0.000
45.000 90.000 0.000
50.000 90.000 0.000
55.000 90.000 0.000
60.000 90.000 0.000
65.000 90.000 0.000
70.000 90.000 0.000
75.000 90.000 0.000
80.000 90.000 0.000
85.000 90.000 0.000
90.000 90.000 0.000
95.000 90.000 0.000
100.000 90.000 0.000
0.000 95.000 0.000
5.000 95.000 0.000
10.000 95.000 0.000
15.000 95.000 0.000
20.000 95.000 0.000
25.000 95.000 0.000
30.000 95.000 0.000
35.000 95.000 0.000
40.000 95.000 0.000
45.000 95.000 0.000
50.000 95.000 0.000
55.000 95.000 0.000
60.000 95.000 0.000
65.000 95.000 0.000
70.000 95.000 0.000
75.000 95.000 0.000
80.000 95.000 0.000
85.000 95.000 0.000
90.000 95.000 0.000
95.000 95.000 0.000
100.000 95.000 0.000
0.000 100.000 0.000
5.000 100.000 0.000
10.000 100.000 0.000
15.000 100.000 0.000
20.000 100.000 0.000
25.000 100.000 0.000
30.000 100.000 0.000
35.000 100.000 0.000
40.000 100.000 0.000
45.000 100.000 0.000
50.000 100.000 0.000
55.000 100.000 0.000
60.000 100.000 0.000
65.000 100.000 0.000
70.000 100.000 0.000
75.000 100.000 0.000
80.000 100.000 0.000
85.000 100.000 0.000
90.000 100.000 0.000
95.000 100.000 0.000
100.000 100.000 0.000
0.000 0.000 5.000
5.000 0.000 5.000
10.000 0.000 5.000
15.000 0.000 5.000
20.000 0.000 5.000
25.000 0.000 5.000
30.000 0.000 5.000
35.000 0.000 5.000
40.000 0.000 5.000
45.000 0.000 5.000
50.000 0.000 5.000
55.000 0.000 5.000
60.000 0.000 5.000
65.000 0.000 5.000
70.000 0.000 5.000
75.000 0.000 5.000
80.000 0.000 5.000
85.000 0.000 5.000
90.000 0.000 5.000
95.000 0.000 5.000
100.000 0.000 5.000
0.000 5.000 5.000
5.000 5.000 5.000
10.000 5.000 5.000
15.000 5.000 5.000
20.000 5.000 5.000
25.000 5.000 5.000
30.000 5.000 5.000
35.000 5.000 5.000
40.000 5.000 5.000
45.000 5.000 5.000
50.000 5.000 5.000
55.000 5.000 5.000
60.000 5.000 5.000
[...]
CELL_DATA 400 
SCALARS  ture_k0  double
LOOKUP_TABLE default
3.906
4.725
6.157
5.506
3.871
4.075
3.668
1.702
2.119
3.714
6.066
6.196
4.171
4.462
3.685
3.970
3.611
2.286
2.976
2.866
6.338
4.354
5.279
4.608
5.305
3.637
4.640
4.220
3.971
3.915
5.293
6.142
7.140
4.594
4.616
3.816
3.096
1.523
3.510
1.462
5.384
5.771
5.573
4.640
4.734
4.610
3.715
3.693
3.218
4.628
4.686
7.263
7.178
5.503
5.416
5.244
4.089
3.515
3.405
1.676
2.558
3.990
4.624
3.480
4.239
5.375
4.269
4.210
5.696
6.546
5.704
5.557
6.811
5.454
4.912
4.080
3.473
4.703
3.504
2.898
4.744
3.452
2.295
4.568
4.448
4.986
5.135
3.973
7.976
5.256
6.262
6.778
6.397
4.971
4.485
4.717
4.275
5.082
3.748
2.233
4.762
5.173
4.580
5.413
4.049
4.488
3.460
3.042
4.675
7.419
6.812
4.729
6.600
5.642
4.720
4.182
5.087
4.008
4.091
1.856
2.187
4.070
3.856
3.010
5.287
5.407
5.226
5.691
5.493
6.720
6.161
4.908
5.249
6.181
4.040
5.328
3.947
3.922
4.830
3.742
5.286
5.427
2.996
6.074
5.313
5.656
5.400
6.206
5.189
5.600
5.967
5.092
5.961
3.702
6.152
4.456
4.777
6.743
4.028
2.569
2.663
4.644
3.912
3.863
3.685
5.604
6.022
4.640
4.919
6.469
6.280
5.522
6.262
5.681
4.160
4.760
4.203
3.740
1.692
1.363
3.928
5.153
5.177
6.833
5.500
3.937
4.597
4.476
3.316
6.213
6.101
6.627
5.002
4.728
5.204
4.218
5.440
4.057
2.663
2.426
4.519
7.113
5.191
5.629
5.343
4.748
5.155
6.002
3.881
4.934
4.419
5.340
5.124
4.867
2.760
4.491
5.333
4.783
4.137
1.705
6.659
7.061
6.939
5.745
6.881
4.139
5.187
5.405
5.996
5.318
4.463
4.384
4.208
2.290
3.114
1.586
2.977
2.719
2.084
2.343
3.531
4.349
6.042
5.427
6.166
5.759
7.075
5.852
1.860
5.817
4.751
5.296
3.864
4.193
4.189
2.311
3.563
3.421
2.455
1.372
4.799
4.023
6.375
4.842
5.351
5.930
5.716
4.183
3.280
4.155
5.101
4.818
3.870
3.696
4.112
1.152
1.780
2.345
1.111
1.552
3.035
5.775
7.706
6.678
4.073
3.934
4.167
2.845
3.809
3.182
2.815
2.246
2.852
2.555
1.335
3.646
2.543
2.360
1.283
2.113
3.968
5.214
5.191
4.666
4.252
4.520
3.921
3.769
2.066
3.163
3.141
1.239
1.790
1.267
2.258
1.349
2.735
2.372
0.867
-1.262
3.198
4.920
6.730
5.180
5.101
3.022
3.984
3.077
3.776
3.493
2.971
0.815
1.133
2.787
-0.700
0.289
2.735
1.430
1.185
1.900
3.896
3.349
4.539
4.742
5.554
4.475
5.192
4.189
6.060
5.109
3.985
3.785
1.979
0.971
0.937
0.870
0.924
1.820
0.772
2.411
1.190
4.833
5.047
6.767
5.252
4.622
3.289
5.637
4.018
4.354
4.390
3.970
3.396
3.822
2.311
1.374
1.307
0.826
1.406
1.969
4.118
3.397
6.171
4.406
6.016
4.781
4.776
4.247
4.379
4.697
3.921
2.753
2.934
2.133
4.605
1.219
2.566
-0.091
1.694
1.054
SCALARS  predict_k0  double
LOOKUP_TABLE default
3.597
4.186
6.333
4.673
4.131
4.591
4.449
4.506
4.916
4.942
5.885
5.438
5.087
4.796
4.654
4.044
3.522
3.475
2.988
2.211
4.002
4.660
4.883
5.111
4.773
4.467
4.785
5.274
5.227
5.415
5.943
6.123
5.668
5.144
4.685
4.418
3.668
4.050
2.897
2.870
4.063
4.432
4.748
4.879
4.931
4.781
4.739
5.237
5.771
5.937
6.580
6.530
7.201
5.609
4.905
4.854
4.392
3.570
3.468
2.755
4.056
3.518
4.293
4.944
4.875
4.909
4.885
5.522
6.407
6.369
6.649
6.444
6.593
5.805
4.730
3.791
4.798
4.406
3.641
3.066
3.879
4.435
4.722
5.171
4.197
5.252
4.710
4.022
8.100
6.879
6.829
6.685
6.406
5.105
5.440
4.841
4.459
3.822
4.051
3.355
4.097
4.520
5.163
5.301
4.959
4.855
3.183
5.088
6.374
7.589
6.836
6.657
6.585
5.602
5.307
5.241
4.857
4.427
4.152
4.068
4.521
4.740
4.985
5.353
5.061
4.885
5.204
5.361
5.048
6.316
6.339
6.446
6.056
5.817
5.089
5.567
5.536
5.772
4.659
4.156
4.664
4.667
5.363
5.496
5.420
5.568
5.323
5.350
5.508
6.289
6.424
5.050
6.312
6.093
5.889
5.605
5.588
6.845
4.918
3.713
4.640
4.901
5.365
5.320
5.240
5.427
5.255
5.218
5.820
5.998
5.976
5.740
6.068
5.787
5.243
5.433
5.541
5.540
4.955
4.063
5.209
5.821
5.918
5.544
5.726
5.595
5.175
5.237
5.432
6.134
5.604
5.652
5.694
5.121
5.709
4.154
4.685
4.780
3.964
4.075
5.332
6.919
6.233
5.701
5.891
5.701
5.337
5.044
3.712
5.574
5.339
5.363
5.054
4.882
4.851
4.747
4.516
4.100
3.915
3.794
5.717
6.198
7.362
5.903
6.275
5.899
5.376
5.226
5.035
4.916
4.828
4.921
4.605
4.547
4.237
4.176
3.888
3.488
3.811
3.562
5.649
6.044
6.187
6.312
6.269
5.849
5.572
5.395
5.364
4.879
5.065
4.530
4.418
4.607
3.934
3.887
3.821
3.666
3.351
2.897
5.202
6.017
6.182
6.406
5.895
5.646
5.426
5.189
5.127
4.362
4.416
4.769
4.481
4.284
3.997
3.645
3.466
3.242
2.902
2.911
5.154
5.979
7.808
6.347
5.797
5.630
5.481
5.748
4.834
4.977
4.818
4.278
4.187
4.036
3.918
3.663
3.165
3.083
2.693
2.211
5.077
5.727
6.088
6.446
5.807
5.836
5.688
5.722
5.279
4.865
4.504
4.534
3.969
4.220
3.904
3.445
3.158
3.141
3.130
2.426
4.556
5.479
5.844
6.044
5.466
5.650
6.129
5.624
5.137
4.967
4.898
4.617
4.060
4.022
3.627
3.330
3.119
2.772
2.440
2.328
4.119
4.613
5.609
5.832
5.554
5.523
5.761
5.372
5.858
5.077
4.658
4.813
4.397
3.791
3.930
3.600
3.299
2.496
2.538
2.012
3.917
4.515
5.070
7.186
5.453
5.489
5.105
5.535
5.175
4.836
4.828
4.072
4.298
3.696
4.310
3.513
3.301
2.536
2.430
2.272
3.084
3.963
4.812
4.735
5.398
5.228
4.745
4.407
4.731
4.591
4.031
4.143
3.575
3.981
4.398
3.622
2.926
2.560
1.805
1.734
SCALARS  ture_k1  double
LOOKUP_TABLE default
3.735
4.349
6.157
4.667
5.242
4.158
5.018
4.132
3.175
5.070
6.066
7.882
5.333
5.289
4.412
3.970
3.978
4.792
2.081
0.092
2.303
4.983
5.279
4.721
5.315
5.814
6.239
3.307
4.357
6.502
6.370
6.491
5.161
4.630
4.616
4.873
4.218
4.408
3.622
4.095
2.675
3.215
5.904
4.846
4.825
3.794
4.343
5.346
6.429
5.972
6.324
5.968
7.178
3.984
3.846
3.632
4.566
3.421
3.405
3.258
3.466
3.990
4.624
5.616
6.381
5.292
3.809
5.261
6.546
6.044
6.925
5.403
6.811
5.003
3.325
4.080
4.489
3.692
2.362
3.673
2.547
3.817
6.365
4.945
4.448
5.701
4.793
3.973
7.976
6.280
7.275
5.619
6.397
4.971
3.365
4.037
2.374
3.565
3.673
1.828
4.058
3.401
4.990
5.413
3.518
5.571
3.460
5.842
7.526
7.419
6.454
5.838
6.600
5.402
4.552
5.132
5.093
5.518
3.023
1.210
6.069
5.333
6.201
5.196
4.475
5.207
3.166
5.207
5.493
6.213
6.195
6.922
6.090
6.848
7.449
5.435
8.134
5.440
3.604
3.243
4.778
5.933
5.990
6.220
5.313
4.314
5.911
5.840
7.148
7.399
6.631
5.092
5.047
5.241
5.112
6.101
6.954
6.743
3.469
2.191
4.573
6.161
6.193
4.983
6.486
5.455
5.857
4.737
6.687
7.110
6.280
5.288
6.262
5.338
5.751
5.419
5.237
5.349
4.121
2.726
5.738
4.599
5.219
5.206
5.574
6.501
4.211
5.272
6.200
6.213
6.101
4.470
5.168
5.778
5.204
4.218
5.339
3.872
3.908
1.264
5.102
7.113
7.010
5.629
6.035
6.657
4.878
3.228
3.881
5.301
5.556
4.082
5.203
3.710
4.026
3.794
2.385
4.640
4.137
3.046
4.395
5.382
6.939
6.565
6.486
4.776
4.642
5.566
3.997
2.887
4.259
4.399
4.208
3.957
3.470
4.231
2.263
3.660
1.960
0.447
4.970
5.972
4.786
5.574
6.646
5.161
4.338
2.138
4.404
3.362
3.828
2.486
3.564
3.409
4.264
2.562
3.931
2.910
2.237
1.375
5.647
5.449
6.777
6.206
6.484
5.591
4.572
3.541
4.252
5.218
3.164
2.151
3.296
2.076
1.543
1.531
1.540
0.677
2.438
0.246
4.648
6.496
7.706
5.744
5.266
5.314
5.645
4.906
4.883
4.985
3.277
3.195
2.163
0.614
0.638
2.733
2.230
-0.057
0.843
-1.706
3.150
4.750
6.572
5.018
4.211
7.392
6.139
5.181
3.801
3.514
4.826
3.125
2.527
2.063
1.347
2.315
4.317
2.970
0.513
-0.092
3.249
5.298
5.870
6.208
5.177
4.879
4.633
5.606
4.801
2.727
4.129
2.236
2.196
4.104
2.429
2.315
1.155
1.232
0.803
0.373
3.787
4.250
4.052
5.983
6.000
5.746
6.226
5.513
6.060
5.109
2.813
4.561
3.799
3.814
2.588
2.236
3.702
1.361
1.140
1.845
2.931
3.392
5.285
6.767
5.162
3.100
3.822
5.637
5.000
4.431
4.390
4.245
4.686
3.822
4.143
1.697
1.686
1.895
1.555
0.341
3.275
3.094
4.180
4.091
3.659
4.155
3.501
4.916
4.013
3.221
3.450
3.577
3.064
4.437
4.605
2.341
1.701
2.387
0.474
1.497
SCALARS  predict_k1  double
LOOKUP_TABLE default
3.516
4.248
6.143
4.662
4.431
4.302
4.328
4.453
4.737
5.022
6.082
5.216
4.926
4.558
4.185
3.999
3.341
2.949
2.612
2.260
3.618
4.305
5.285
4.819
4.609
4.546
4.602
4.807
5.214
5.531
5.792
5.794
5.599
5.126
4.620
4.129
3.700
3.320
2.907
2.504
3.688
4.210
4.667
4.753
4.705
4.657
4.722
5.106
5.561
5.895
6.132
6.273
7.140
5.596
4.895
4.313
3.938
3.577
3.422
2.811
3.663
3.965
4.571
4.689
4.632
4.662
4.751
5.188
5.937
6.338
6.455
6.503
6.737
5.725
4.994
4.074
4.161
3.794
3.448
3.001
3.762
4.230
4.565
4.744
4.423
4.577
4.613
4.001
7.953
6.608
6.666
6.520
6.394
4.951
5.147
4.765
4.383
4.110
3.716
3.265
3.859
4.313
4.676
5.447
4.821
4.610
3.441
5.134
6.106
7.432
6.606
6.402
6.581
5.716
5.254
5.028
4.803
4.457
4.037
3.477
4.010
4.485
4.838
4.958
4.978
4.821
4.806
5.238
5.517
6.221
6.267
6.101
5.987
5.700
5.405
5.197
5.119
4.911
4.336
3.738
4.258
4.642
4.977
5.127
5.295
5.054
5.056
5.246
5.627
5.983
6.007
5.125
5.821
5.601
5.434
5.256
5.220
6.729
4.554
3.780
4.584
5.029
5.242
5.332
5.284
5.152
5.150
5.265
5.486
5.849
6.221
5.830
6.238
5.528
5.307
5.031
4.945
4.823
4.326
3.719
4.902
5.507
5.656
5.550
5.394
5.255
5.135
5.073
5.267
6.219
6.106
5.597
5.452
5.257
5.145
4.218
4.611
4.388
4.101
3.576
5.327
7.082
6.080
5.654
5.555
5.251
5.069
4.890
3.878
5.141
5.251
5.120
4.962
4.750
4.549
4.352
4.176
4.049
4.141
3.290
5.304
5.991
6.893
6.008
5.678
5.369
5.062
4.892
4.775
4.870
4.911
4.697
4.221
4.354
4.250
4.057
3.843
3.684
3.412
2.996
5.248
5.906
6.229
6.106
5.728
5.409
5.133
4.900
4.740
4.608
4.572
4.401
4.269
4.120
3.961
3.751
3.530
3.241
3.077
2.704
5.088
5.781
6.284
6.172
5.831
5.486
5.218
5.002
4.903
4.679
4.468
4.348
4.163
3.898
3.720
3.563
3.295
3.042
2.806
2.501
4.967
5.759
7.761
6.229
5.888
5.575
5.305
5.135
4.876
4.647
4.428
4.255
4.077
3.833
3.608
3.373
3.096
2.817
2.564
2.239
4.676
5.401
5.917
5.985
5.814
5.587
5.362
5.233
5.037
4.780
4.515
4.253
4.028
3.778
3.509
3.245
3.004
2.703
2.376
2.039
4.339
4.962
5.513
5.710
5.711
5.564
5.535
5.368
5.247
4.928
4.625
4.300
3.998
3.755
3.463
3.235
2.883
2.499
2.282
1.938
4.034
4.669
5.244
5.611
5.573
5.438
5.457
5.408
6.060
5.105
4.550
4.258
4.002
3.770
3.552
3.198
2.868
2.466
2.197
1.852
3.669
4.248
4.911
6.786
5.355
5.191
5.138
5.575
5.026
4.691
4.411
4.088
3.929
3.791
3.630
3.221
2.783
2.367
1.981
1.741
3.250
3.736
4.283
4.693
4.720
4.662
4.596
4.602
4.411
4.220
3.994
3.773
3.724
3.684
4.601
3.173
2.705
2.205
1.896
1.572
SCALARS  ture_k2  double
LOOKUP_TABLE default
2.735
3.150
6.157
5.496
4.001
5.833
6.287
5.732
6.225
4.224
6.066
6.298
5.105
5.379
4.921
3.970
1.377
1.163
3.424
0.002
3.690
3.570
5.279
5.074
4.094
5.242
6.204
6.168
6.393
5.518
4.627
4.977
7.037
5.959
4.616
4.103
3.732
3.045
2.310
2.079
3.778
5.083
2.742
4.833
6.958
5.882
5.944
6.797
8.312
6.148
5.199
6.140
7.178
5.562
5.482
5.222
4.430
4.491
3.405
4.274
3.096
3.990
4.624
4.359
4.646
3.407
4.747
5.204
7.173
6.356
6.153
8.372
6.811
5.930
5.401
4.080
4.248
4.654
3.619
1.764
4.327
4.435
4.641
5.306
4.448
3.456
4.224
3.973
7.976
7.481
5.949
5.732
6.397
4.971
6.693
5.372
6.318
4.255
3.236
4.630
4.191
4.675
5.566
5.413
2.236
4.005
3.460
5.396
6.367
7.419
6.919
6.579
6.600
5.830
6.525
5.508
5.251
4.224
4.350
3.265
5.293
3.982
4.290
5.233
5.207
4.241
3.730
6.261
5.493
5.508
5.881
5.173
6.866
5.675
6.240
3.655
2.861
6.661
3.199
2.934
4.226
4.651
4.472
4.610
5.313
3.261
5.393
5.143
5.701
5.561
6.220
5.092
7.044
5.681
5.277
6.031
4.742
6.743
3.438
4.115
5.988
4.505
4.166
6.870
5.067
4.977
7.607
7.206
6.386
6.211
6.280
6.731
6.262
6.345
7.081
3.798
5.177
4.804
4.826
2.833
4.478
4.996
5.414
5.093
6.445
6.202
6.011
5.485
5.874
6.213
6.101
6.033
6.077
5.500
5.204
4.218
5.653
5.915
3.831
4.237
3.304
7.113
5.862
5.629
7.460
4.556
5.299
5.183
3.881
6.941
5.825
4.792
6.016
5.238
5.421
5.024
5.321
3.709
4.137
3.311
4.915
5.258
6.939
7.471
7.936
5.376
6.244
5.678
5.270
5.761
4.556
4.754
4.208
4.784
5.180
4.730
5.281
4.549
3.140
3.840
5.330
5.130
6.742
7.193
7.895
6.806
7.157
5.706
5.878
5.953
6.195
5.242
3.255
2.482
3.234
4.685
5.370
3.417
4.439
3.847
5.878
5.672
7.737
6.910
9.018
8.698
8.228
5.927
4.773
4.894
4.292
4.078
4.046
3.036
3.520
3.998
5.769
4.158
3.247
1.677
5.151
6.052
7.706
5.971
6.455
8.202
8.776
5.913
5.434
4.320
3.849
3.562
4.478
3.103
3.296
5.110
3.328
3.048
2.426
3.316
5.963
5.804
5.783
6.077
5.322
8.622
6.900
5.196
4.534
3.658
3.684
3.225
4.028
2.645
3.415
4.297
3.594
3.485
1.790
2.523
6.105
4.447
7.121
7.776
5.505
5.280
6.745
6.078
5.951
5.777
5.501
3.896
2.808
2.667
2.971
3.854
3.904
4.295
2.515
2.584
4.090
4.613
4.942
5.940
7.780
6.316
7.327
5.882
6.060
5.109
5.118
3.586
2.143
3.013
2.150
2.682
4.390
4.215
3.410
4.932
3.718
2.950
6.076
6.767
6.275
4.174
5.546
5.637
4.827
4.482
4.390
4.967
3.309
3.822
3.056
3.243
3.766
3.291
2.926
0.959
3.037
2.917
3.964
4.995
2.999
3.756
3.524
4.139
4.890
3.380
2.519
4.434
3.988
4.551
4.605
4.742
3.513
3.080
2.390
4.179
SCALARS  predict_k2  double
LOOKUP_TABLE default
4.248
4.549
5.971
5.028
5.089
4.129
4.785
4.521
5.250
5.750
5.814
5.716
5.321
4.260
4.715
3.801
3.916
3.536
2.568
2.701
4.290
4.041
5.063
5.430
4.887
4.618
4.925
4.923
5.234
5.490
5.976
5.971
5.889
5.603
4.408
4.305
3.766
3.421
2.751
2.784
3.544
4.818
4.819
5.150
4.900
4.979
5.251
5.552
5.558
6.234
6.491
6.358
6.939
6.209
5.319
4.226
4.563
4.086
3.446
2.886
3.987
4.269
4.055
4.803
4.701
5.141
4.914
5.025
5.989
6.620
6.661
6.640
6.680
5.962
5.563
4.087
4.494
3.647
4.019
3.103
3.724
4.350
5.258
4.883
4.504
4.897
4.861
4.119
7.831
6.815
6.685
7.105
6.370
4.748
5.163
5.265
5.365
4.727
3.939
3.083
4.456
4.439
4.650
5.119
5.050
4.915
3.235
5.344
6.412
7.922
6.585
6.895
6.329
5.980
5.839
5.066
5.429
5.210
4.085
3.661
3.980
4.322
5.140
5.215
5.856
4.618
5.141
5.963
5.966
6.294
6.663
6.620
6.346
6.622
5.297
5.319
4.634
5.107
4.529
3.784
5.046
4.725
4.809
5.036
5.300
5.688
5.351
5.164
6.430
6.471
6.522
4.901
5.656
5.964
5.749
5.342
5.881
7.199
5.054
3.942
5.143
5.109
5.421
5.056
5.779
5.804
6.172
5.765
5.512
6.110
6.630
6.227
6.117
5.855
5.048
5.235
5.780
4.629
5.163
3.810
5.128
5.760
5.862
5.352
5.954
5.146
5.590
5.505
5.751
6.168
5.960
5.722
5.805
5.454
5.091
4.206
4.427
4.591
3.998
3.823
5.200
7.377
6.465
5.279
6.004
5.701
6.021
5.164
4.478
4.790
5.893
5.853
5.780
4.886
4.796
4.866
4.126
4.559
3.571
3.012
5.280
6.429
6.448
6.386
5.902
5.742
5.040
5.514
5.032
4.791
5.401
5.011
4.738
4.622
4.367
4.324
4.108
3.441
3.719
3.112
5.382
5.872
6.659
6.263
6.069
5.760
5.486
5.016
5.090
5.818
4.788
4.521
4.513
4.839
4.134
4.302
3.501
4.215
3.398
3.614
5.354
6.344
6.798
6.158
6.069
5.087
5.748
5.329
4.854
4.210
5.114
4.953
3.865
4.137
3.937
3.942
3.976
3.687
3.046
3.293
5.094
6.033
7.986
6.366
6.244
5.421
5.962
5.400
5.691
4.866
4.247
4.169
4.591
4.290
3.332
4.195
3.172
3.638
3.273
3.093
5.104
5.797
5.887
6.482
5.944
5.180
5.725
5.739
5.514
5.030
4.848
4.964
4.538
4.713
4.553
3.209
3.337
3.035
2.782
2.487
4.451
5.036
5.306
5.897
5.919
5.577
6.222
5.548
5.750
5.402
4.822
4.625
4.417
3.943
3.689
4.149
2.840
2.712
2.526
2.256
3.906
4.788
5.671
6.088
5.669
5.930
6.498
5.813
5.697
4.773
4.146
4.728
3.610
4.077
3.819
3.569
2.986
2.811
3.131
2.097
4.386
4.780
5.623
6.449
5.160
5.467
5.294
5.648
5.088
4.780
4.578
4.471
3.981
4.193
3.458
3.439
3.290
2.599
2.307
2.128
4.147
3.781
4.561
4.908
5.181
4.928
4.821
4.213
4.932
4.230
3.644
4.345
4.147
4.012
4.463
3.380
3.253
3.072
2.206
1.801
SCALARS  ture_k3  double
LOOKUP_TABLE default
2.846
4.081
6.157
4.698
3.522
4.883
4.224
6.519
7.238
6.986
6.066
4.704
5.043
2.268
3.102
3.970
4.914
2.690
2.915
3.924
3.281
5.456
5.279
4.848
4.594
6.107
4.564
4.792
5.585
6.879
7.592
6.094
5.269
3.688
4.616
3.073
3.906
4.161
3.582
4.387
3.722
2.619
5.591
5.217
5.128
5.527
3.283
4.608
6.289
5.955
6.556
5.946
7.178
5.520
4.470
3.332
3.039
4.058
3.405
2.967
2.742
3.990
4.624
5.337
4.725
6.872
5.550
5.787
6.849
7.273
4.601
6.669
6.811
6.118
5.326
4.080
4.945
4.075
4.558
4.035
3.138
5.325
4.666
5.303
4.448
4.559
4.942
3.973
7.976
6.823
5.976
6.851
6.397
4.971
5.681
4.535
5.839
4.897
3.335
4.792
3.707
4.728
4.940
5.413
4.368
4.957
3.460
5.031
7.852
7.419
5.504
7.476
6.600
6.419
5.002
4.076
4.316
3.409
4.193
4.615
3.146
6.004
5.024
4.159
4.640
3.851
4.465
5.976
5.493
5.411
7.780
6.442
5.413
4.718
5.318
6.243
4.831
4.934
5.028
4.157
4.355
5.659
4.639
4.868
5.313
4.933
4.488
4.601
5.949
6.900
6.340
5.092
5.742
5.033
6.744
6.127
5.781
6.743
5.091
3.578
5.350
5.526
5.221
4.782
5.118
5.327
3.949
4.195
4.479
4.932
6.280
5.919
6.262
5.688
6.423
5.617
4.956
6.088
4.103
3.996
5.519
4.970
4.973
5.730
7.416
6.357
4.758
3.460
4.282
6.213
6.101
6.553
5.466
4.661
5.204
4.218
5.122
5.131
5.066
5.505
6.580
7.113
6.856
5.629
7.050
4.847
5.224
3.671
3.881
4.166
3.944
4.366
5.017
3.982
4.137
2.938
4.205
1.984
4.137
4.527
2.768
5.295
6.939
6.095
6.920
5.022
5.289
3.140
4.022
5.908
4.418
5.085
4.208
3.469
3.157
2.001
3.897
2.762
3.840
4.266
5.218
3.955
6.136
7.326
6.164
6.085
5.662
6.571
4.145
5.612
5.258
2.581
1.812
2.887
2.855
1.239
2.459
0.981
3.296
4.788
4.924
5.064
4.105
4.629
6.419
4.844
6.062
4.984
5.126
4.047
4.866
3.960
2.991
2.640
1.327
2.904
1.157
1.823
2.543
1.722
3.271
4.534
7.706
4.895
4.732
4.179
4.117
3.137
3.805
4.541
4.796
4.085
4.064
3.327
3.046
1.242
2.932
0.613
0.539
-0.462
3.638
3.921
4.158
4.177
3.968
6.062
4.857
4.153
4.860
5.813
5.092
4.137
4.823
2.588
3.964
1.796
1.475
0.070
0.352
1.289
3.510
4.633
5.104
4.409
4.517
4.453
5.509
3.673
6.731
5.789
6.339
3.807
3.355
3.487
3.487
2.749
3.017
1.500
0.656
0.266
3.086
5.042
5.079
4.858
4.254
3.283
5.112
4.844
6.060
5.109
4.087
3.160
2.549
3.970
3.932
2.789
1.390
0.357
-0.849
-0.250
5.299
5.685
4.669
6.767
5.348
4.574
4.930
5.637
4.289
3.599
4.390
2.379
4.157
3.822
3.954
2.628
2.151
0.894
-0.424
-1.019
5.688
5.306
5.015
4.727
3.749
5.377
4.277
4.625
3.566
3.166
2.764
2.606
2.231
3.503
4.605
2.426
1.320
1.865
1.393
-0.949